Good gRace! Old Maple Actually Chews Slate
  166
    1TYR      N    1   0.000   0.000   0.000
    1TYR     H1    2  -0.033   0.033  -0.088
    1TYR     H2    3  -0.033  -0.093   0.016
    1TYR     H3    4  -0.033   0.060   0.073
    1TYR     CA    5   0.146   0.000   0.000
    1TYR     HA    6   0.170   0.097  -0.007
    1TYR     CB    7   0.207  -0.049   0.131
    1TYR    HB1    8   0.300  -0.013   0.135
    1TYR    HB2    9   0.210  -0.149   0.126
    1TYR     CG   10   0.141  -0.014   0.264
    1TYR    CD1   11   0.140   0.109   0.331
    1TYR    HD1   12   0.186   0.188   0.292
    1TYR    CE1   13   0.072   0.121   0.455
    1TYR    HE1   14   0.071   0.209   0.502
    1TYR     CZ   15   0.005   0.011   0.513
    1TYR     OH   16  -0.061   0.020   0.632
    1TYR     HH   17  -0.101  -0.068   0.656
    1TYR    CE2   18   0.007  -0.113   0.445
    1TYR    HE2   19  -0.040  -0.192   0.485
    1TYR    CD2   20   0.074  -0.123   0.323
    1TYR    HD2   21   0.075  -0.211   0.276
    1TYR      C   22   0.201  -0.071  -0.123
    1TYR      O   23   0.148  -0.174  -0.165
    2TYR      N   24   0.307  -0.015  -0.180
    2TYR      H   25   0.345   0.068  -0.141
    2TYR     CA   26   0.370  -0.073  -0.299
    2TYR     HA   27   0.319  -0.158  -0.313
    2TYR     CB   28   0.350   0.010  -0.425
    2TYR    HB1   29   0.364  -0.051  -0.503
    2TYR    HB2   30   0.423   0.080  -0.425
    2TYR     CG   31   0.219   0.084  -0.450
    2TYR    CD1   32   0.095   0.031  -0.490
    2TYR    HD1   33   0.085  -0.067  -0.505
    2TYR    CE1   34  -0.016   0.117  -0.508
    2TYR    HE1   35  -0.104   0.078  -0.536
    2TYR     CZ   36  -0.004   0.256  -0.487
    2TYR     OH   37  -0.111   0.341  -0.504
    2TYR     HH   38  -0.082   0.435  -0.485
    2TYR    CE2   39   0.119   0.310  -0.448
    2TYR    HE2   40   0.130   0.408  -0.433
    2TYR    CD2   41   0.228   0.223  -0.430
    2TYR    HD2   42   0.316   0.262  -0.402
    2TYR      C   43   0.515  -0.110  -0.272
    2TYR      O   44   0.587  -0.036  -0.204
    3ASP      N   45   0.558  -0.225  -0.324
    3ASP      H   46   0.494  -0.280  -0.378
    3ASP     CA   47   0.694  -0.272  -0.306
    3ASP     HA   48   0.739  -0.197  -0.256
    3ASP     CB   49   0.705  -0.395  -0.216
    3ASP    HB1   50   0.726  -0.363  -0.124
    3ASP    HB2   51   0.781  -0.451  -0.250
    3ASP     CG   52   0.578  -0.484  -0.210
    3ASP    OD1   53   0.477  -0.453  -0.275
    3ASP    OD2   54   0.588  -0.585  -0.137
    3ASP      C   55   0.766  -0.288  -0.440
    3ASP      O   56   0.706  -0.334  -0.537
    4PRO      N   57   0.893  -0.249  -0.444
    4PRO     CD   58   0.868  -0.284  -0.582
    4PRO    HD1   59   0.784  -0.338  -0.591
    4PRO    HD2   60   0.945  -0.336  -0.620
    4PRO     CG   61   0.857  -0.140  -0.638
    4PRO    HG1   62   0.806  -0.077  -0.580
    4PRO    HG2   63   0.822  -0.134  -0.732
    4PRO     CB   64   1.006  -0.123  -0.628
    4PRO    HB1   65   1.041  -0.052  -0.567
    4PRO    HB2   66   1.058  -0.123  -0.713
    4PRO     CA   67   0.972  -0.259  -0.566
    4PRO     HA   68   0.911  -0.304  -0.631
    4PRO      C   69   1.094  -0.349  -0.545
    4PRO      O   70   1.158  -0.344  -0.440
    5GLU      N   71   1.124  -0.430  -0.646
    5GLU      H   72   1.068  -0.428  -0.729
    5GLU     CA   73   1.238  -0.521  -0.639
    5GLU     HA   74   1.281  -0.499  -0.552
    5GLU     CB   75   1.198  -0.668  -0.630
    5GLU    HB1   76   1.150  -0.692  -0.715
    5GLU    HB2   77   1.135  -0.678  -0.553
    5GLU     CG   78   1.313  -0.768  -0.610
    5GLU    HG1   79   1.363  -0.744  -0.527
    5GLU    HG2   80   1.375  -0.763  -0.689
    5GLU     CD   81   1.262  -0.913  -0.598
    5GLU    OE1   82   1.272  -0.984  -0.700
    5GLU    OE2   83   1.214  -0.953  -0.489
    5GLU      C   84   1.338  -0.492  -0.750
    5GLU      O   85   1.300  -0.463  -0.863
    6THR      N   86   1.467  -0.499  -0.716
    6THR      H   87   1.491  -0.523  -0.622
    6THR     CA   88   1.573  -0.474  -0.813
    6THR     HA   89   1.524  -0.459  -0.899
    6THR     CB   90   1.650  -0.344  -0.786
    6THR     HB   91   1.683  -0.358  -0.693
    6THR    CG2   92   1.760  -0.313  -0.887
    6THR   HG21   93   1.805  -0.227  -0.862
    6THR   HG22   94   1.827  -0.387  -0.887
    6THR   HG23   95   1.720  -0.305  -0.979
    6THR    OG1   96   1.571  -0.227  -0.789
    6THR    HG1   97   1.628  -0.147  -0.771
    6THR      C   98   1.663  -0.596  -0.830
    6THR      O   99   1.695  -0.663  -0.732
    7GLY      N  100   1.703  -0.623  -0.954
    7GLY      H  101   1.673  -0.563  -1.028
    7GLY     CA  102   1.789  -0.737  -0.983
    7GLY    HA1  103   1.740  -0.797  -1.046
    7GLY    HA2  104   1.807  -0.785  -0.898
    7GLY      C  105   1.920  -0.692  -1.047
    7GLY      O  106   1.921  -0.601  -1.130
    8THR      N  107   2.030  -0.755  -1.007
    8THR      H  108   2.021  -0.828  -0.939
    8THR     CA  109   2.161  -0.722  -1.060
    8THR     HA  110   2.142  -0.653  -1.129
    8THR     CB  111   2.253  -0.654  -0.958
    8THR     HB  112   2.259  -0.722  -0.884
    8THR    CG2  113   2.387  -0.610  -1.014
    8THR   HG21  114   2.441  -0.567  -0.942
    8THR   HG22  115   2.436  -0.690  -1.050
    8THR   HG23  116   2.372  -0.545  -1.088
    8THR    OG1  117   2.201  -0.533  -0.907
    8THR    HG1  118   2.266  -0.494  -0.841
    8THR      C  119   2.225  -0.842  -1.129
    8THR      O  120   2.214  -0.955  -1.081
    9TRP      N  121   2.291  -0.817  -1.242
    9TRP      H  122   2.296  -0.723  -1.275
    9TRP     CA  123   2.357  -0.923  -1.317
    9TRP     HA  124   2.343  -1.004  -1.261
    9TRP     CB  125   2.289  -0.953  -1.451
    9TRP    HB1  126   2.233  -0.874  -1.475
    9TRP    HB2  127   2.230  -1.033  -1.437
    9TRP     CG  128   2.377  -0.983  -1.572
    9TRP    CD1  129   2.368  -0.911  -1.687
    9TRP    HD1  130   2.304  -0.836  -1.702
    9TRP    NE1  131   2.459  -0.957  -1.781
    9TRP    HE1  132   2.469  -0.918  -1.873
    9TRP    CE2  133   2.534  -1.061  -1.732
    9TRP    CZ2  134   2.638  -1.139  -1.787
    9TRP    HZ2  135   2.670  -1.122  -1.880
    9TRP    CH2  136   2.696  -1.241  -1.711
    9TRP    HH2  137   2.770  -1.297  -1.748
    9TRP    CZ3  138   2.649  -1.263  -1.581
    9TRP    HZ3  139   2.690  -1.335  -1.525
    9TRP    CE3  140   2.546  -1.184  -1.527
    9TRP    HE3  141   2.515  -1.202  -1.434
    9TRP    CD2  142   2.484  -1.080  -1.600
    9TRP      C  143   2.507  -0.897  -1.329
    9TRP      O  144   2.549  -0.783  -1.349
   10TYR      N  145   2.585  -1.004  -1.317
   10TYR      H  146   2.544  -1.093  -1.301
   10TYR     CA  147   2.730  -0.993  -1.326
   10TYR     HA  148   2.746  -0.897  -1.349
   10TYR     CB  149   2.802  -1.017  -1.193
   10TYR    HB1  150   2.892  -0.974  -1.202
   10TYR    HB2  151   2.813  -1.116  -1.185
   10TYR     CG  152   2.743  -0.969  -1.061
   10TYR    CD1  153   2.739  -0.838  -1.010
   10TYR    HD1  154   2.778  -0.762  -1.063
   10TYR    CE1  155   2.680  -0.813  -0.884
   10TYR    HE1  156   2.678  -0.719  -0.848
   10TYR     CZ  157   2.625  -0.918  -0.808
   10TYR     OH  158   2.566  -0.896  -0.685
   10TYR     HH  159   2.534  -0.983  -0.648
   10TYR    CE2  160   2.629  -1.049  -0.858
   10TYR    HE2  161   2.590  -1.125  -0.806
   10TYR    CD2  162   2.688  -1.072  -0.983
   10TYR    HD2  163   2.690  -1.165  -1.018
   10TYR      C  164   2.784  -1.078  -1.441
   10TYR    OC1  165   2.693  -1.116  -1.366
   10TYR    OC2  166   2.738  -1.189  -1.464
   3.00312   1.77019   2.53580
