GRowing Old MAkes el Chrono Sweat
   22
    1ACE    CH3    1  -0.006  -0.005   0.015
    1ACE   HH31    2  -0.034  -0.100   0.026
    1ACE   HH32    3  -0.034   0.047   0.096
    1ACE   HH33    4  -0.049   0.033  -0.066
    1ACE      C    5   0.144   0.002   0.001
    1ACE      O    6   0.199   0.110  -0.013
    2ALA      N    7   0.210  -0.113   0.003
    2ALA      H    8   0.156  -0.198   0.008
    2ALA     CA    9   0.356  -0.125  -0.000
    2ALA     HA   10   0.389  -0.057   0.066
    2ALA     CB   11   0.394  -0.268   0.041
    2ALA    HB1   12   0.493  -0.278   0.039
    2ALA    HB2   13   0.360  -0.286   0.134
    2ALA    HB3   14   0.353  -0.333  -0.022
    2ALA      C   15   0.421  -0.086  -0.135
    2ALA      O   16   0.536  -0.046  -0.139
    3NME      N   17   0.349  -0.105  -0.247
    3NME      H   18   0.256  -0.142  -0.238
    3NME    CH3   19   0.397  -0.075  -0.382
    3NME   HH31   20   0.326  -0.097  -0.448
    3NME   HH32   21   0.419   0.022  -0.388
    3NME   HH33   22   0.478  -0.129  -0.401
   0.58547   0.44326   0.58199
