GROtesk MACabre and Sinister
   22
    1ACE    CH3    1  -0.008  -0.004  -0.010
    1ACE   HH31    2  -0.036  -0.100  -0.014
    1ACE   HH32    3  -0.047   0.039   0.071
    1ACE   HH33    4  -0.040   0.043  -0.092
    1ACE      C    5   0.143   0.004  -0.003
    1ACE      O    6   0.198   0.113   0.002
    2ALA      N    7   0.208  -0.113  -0.002
    2ALA      H    8   0.153  -0.196  -0.005
    2ALA     CA    9   0.354  -0.130   0.003
    2ALA     HA   10   0.366  -0.229  -0.001
    2ALA     CB   11   0.422  -0.071  -0.122
    2ALA    HB1   12   0.521  -0.084  -0.115
    2ALA    HB2   13   0.388  -0.117  -0.204
    2ALA    HB3   14   0.402   0.027  -0.128
    2ALA      C   15   0.417  -0.090   0.137
    2ALA      O   16   0.465  -0.176   0.210
    3NME      N   17   0.419   0.040   0.169
    3NME      H   18   0.378   0.104   0.104
    3NME    CH3   19   0.478   0.096   0.291
    3NME   HH31   20   0.467   0.195   0.291
    3NME   HH32   21   0.432   0.057   0.370
    3NME   HH33   22   0.575   0.073   0.294
   0.62252   0.42427   0.57407
