GRowing Old MAkes el Chrono Sweat
   22
    1ACE    CH3    1  -0.000  -0.002   0.001
    1ACE   HH31    2  -0.030  -0.097   0.005
    1ACE   HH32    3  -0.034   0.047   0.082
    1ACE   HH33    4  -0.037   0.041  -0.081
    1ACE      C    5   0.150   0.005  -0.002
    1ACE      O    6   0.207   0.113  -0.007
    2ALA      N    7   0.215  -0.112   0.001
    2ALA      H    8   0.160  -0.195   0.005
    2ALA     CA    9   0.361  -0.126  -0.002
    2ALA     HA   10   0.396  -0.050  -0.056
    2ALA     CB   11   0.414  -0.119   0.141
    2ALA    HB1   12   0.514  -0.129   0.140
    2ALA    HB2   13   0.390  -0.031   0.182
    2ALA    HB3   14   0.374  -0.193   0.195
    2ALA      C   15   0.401  -0.258  -0.071
    2ALA      O   16   0.327  -0.356  -0.066
    3NME      N   17   0.519  -0.259  -0.135
    3NME      H   18   0.574  -0.175  -0.135
    3NME    CH3   19   0.572  -0.375  -0.206
    3NME   HH31   20   0.661  -0.353  -0.245
    3NME   HH32   21   0.583  -0.451  -0.141
    3NME   HH33   22   0.509  -0.402  -0.278
   0.69832   0.56434   0.47387
