Georgetown Riga Oslo Madrid Amsterdam Chisinau Stockholm
  166
    1TYR      N    1   0.133   0.000   0.000
    1TYR     H1    2   0.036   0.014  -0.020
    1TYR     H2    3   0.144  -0.088   0.046
    1TYR     H3    4   0.166   0.074   0.059
    1TYR     CA    5   0.209   0.000  -0.124
    1TYR     HA    6   0.194   0.090  -0.165
    1TYR     CB    7   0.358  -0.022  -0.095
    1TYR    HB1    8   0.368  -0.104  -0.039
    1TYR    HB2    9   0.393   0.057  -0.045
    1TYR     CG   10   0.442  -0.038  -0.220
    1TYR    CD1   11   0.476   0.071  -0.298
    1TYR    HD1   12   0.444   0.162  -0.272
    1TYR    CE1   13   0.553   0.056  -0.412
    1TYR    HE1   14   0.576   0.135  -0.468
    1TYR     CZ   15   0.597  -0.070  -0.448
    1TYR     OH   16   0.674  -0.085  -0.562
    1TYR     HH   17   0.697  -0.182  -0.573
    1TYR    CE2   18   0.565  -0.180  -0.372
    1TYR    HE2   19   0.597  -0.271  -0.398
    1TYR    CD2   20   0.488  -0.164  -0.258
    1TYR    HD2   21   0.465  -0.244  -0.203
    1TYR      C   22   0.159  -0.108  -0.219
    1TYR      O   23   0.185  -0.227  -0.200
    2TYR      N   24   0.085  -0.066  -0.322
    2TYR      H   25   0.067   0.032  -0.332
    2TYR     CA   26   0.031  -0.159  -0.420
    2TYR     HA   27  -0.036  -0.214  -0.370
    2TYR     CB   28  -0.036  -0.082  -0.534
    2TYR    HB1   29   0.034  -0.035  -0.587
    2TYR    HB2   30  -0.099  -0.015  -0.495
    2TYR     CG   31  -0.115  -0.170  -0.628
    2TYR    CD1   32  -0.223  -0.245  -0.583
    2TYR    HD1   33  -0.249  -0.240  -0.487
    2TYR    CE1   34  -0.295  -0.326  -0.669
    2TYR    HE1   35  -0.373  -0.379  -0.635
    2TYR     CZ   36  -0.259  -0.333  -0.802
    2TYR     OH   37  -0.330  -0.414  -0.888
    2TYR     HH   38  -0.291  -0.407  -0.980
    2TYR    CE2   39  -0.152  -0.260  -0.849
    2TYR    HE2   40  -0.126  -0.266  -0.946
    2TYR    CD2   41  -0.080  -0.180  -0.763
    2TYR    HD2   42  -0.003  -0.127  -0.797
    2TYR      C   43   0.140  -0.250  -0.476
    2TYR      O   44   0.255  -0.208  -0.491
    3ASP      N   45   0.103  -0.374  -0.506
    3ASP      H   46   0.008  -0.401  -0.491
    3ASP     CA   47   0.198  -0.470  -0.560
    3ASP     HA   48   0.287  -0.424  -0.559
    3ASP     CB   49   0.201  -0.596  -0.473
    3ASP    HB1   50   0.116  -0.646  -0.485
    3ASP    HB2   51   0.211  -0.569  -0.377
    3ASP     CG   52   0.317  -0.688  -0.508
    3ASP    OD1   53   0.426  -0.671  -0.450
    3ASP    OD2   54   0.298  -0.776  -0.594
    3ASP      C   55   0.161  -0.508  -0.704
    3ASP      O   56   0.112  -0.617  -0.731
    4PRO      N   57   0.186  -0.415  -0.797
    4PRO     CD   58   0.245  -0.282  -0.771
    4PRO    HD1   59   0.328  -0.290  -0.716
    4PRO    HD2   60   0.179  -0.223  -0.724
    4PRO     CG   61   0.276  -0.230  -0.909
    4PRO    HG1   62   0.370  -0.254  -0.935
    4PRO    HG2   63   0.264  -0.131  -0.913
    4PRO     CB   64   0.179  -0.297  -1.001
    4PRO    HB1   65   0.219  -0.304  -1.092
    4PRO    HB2   66   0.094  -0.245  -1.005
    4PRO     CA   67   0.156  -0.435  -0.939
    4PRO     HA   68   0.064  -0.471  -0.950
    4PRO      C   69   0.249  -0.538  -1.003
    4PRO      O   70   0.220  -0.591  -1.110
    5GLU      N   71   0.361  -0.566  -0.937
    5GLU      H   72   0.379  -0.520  -0.850
    5GLU     CA   73   0.458  -0.663  -0.987
    5GLU     HA   74   0.485  -0.628  -1.077
    5GLU     CB   75   0.578  -0.671  -0.893
    5GLU    HB1   76   0.546  -0.694  -0.801
    5GLU    HB2   77   0.624  -0.582  -0.892
    5GLU     CG   78   0.680  -0.776  -0.935
    5GLU    HG1   79   0.679  -0.785  -1.034
    5GLU    HG2   80   0.655  -0.864  -0.893
    5GLU     CD   81   0.821  -0.741  -0.891
    5GLU    OE1   82   0.885  -0.659  -0.959
    5GLU    OE2   83   0.867  -0.796  -0.789
    5GLU      C   84   0.394  -0.801  -1.003
    5GLU      O   85   0.382  -0.853  -1.113
    6THR      N   86   0.352  -0.859  -0.891
    6THR      H   87   0.364  -0.811  -0.803
    6THR     CA   88   0.290  -0.991  -0.891
    6THR     HA   89   0.342  -1.042  -0.960
    6THR     CB   90   0.300  -1.059  -0.753
    6THR     HB   91   0.257  -1.002  -0.683
    6THR    CG2   92   0.235  -1.196  -0.756
    6THR   HG21   93   0.243  -1.238  -0.666
    6THR   HG22   94   0.138  -1.187  -0.780
    6THR   HG23   95   0.281  -1.254  -0.823
    6THR    OG1   96   0.437  -1.071  -0.715
    6THR    HG1   97   0.443  -1.115  -0.625
    6THR      C   98   0.143  -0.982  -0.932
    6THR      O   99   0.105  -1.028  -1.039
    7GLY      N  100   0.062  -0.922  -0.845
    7GLY      H  101   0.099  -0.887  -0.759
    7GLY     CA  102  -0.079  -0.909  -0.874
    7GLY    HA1  103  -0.105  -0.982  -0.936
    7GLY    HA2  104  -0.093  -0.820  -0.919
    7GLY      C  105  -0.165  -0.915  -0.749
    7GLY      O  106  -0.271  -0.977  -0.748
    8THR      N  107  -0.118  -0.851  -0.642
    8THR      H  108  -0.031  -0.803  -0.649
    8THR     CA  109  -0.191  -0.850  -0.516
    8THR     HA  110  -0.278  -0.893  -0.538
    8THR     CB  111  -0.116  -0.930  -0.407
    8THR     HB  112  -0.030  -0.885  -0.383
    8THR    CG2  113  -0.202  -0.947  -0.283
    8THR   HG21  114  -0.152  -0.999  -0.214
    8THR   HG22  115  -0.225  -0.857  -0.246
    8THR   HG23  116  -0.286  -0.995  -0.307
    8THR    OG1  117  -0.079  -1.059  -0.458
    8THR    HG1  118  -0.031  -1.110  -0.387
    8THR      C  119  -0.213  -0.708  -0.466
    8THR      O  120  -0.118  -0.630  -0.455
    9TRP      N  121  -0.338  -0.675  -0.436
    9TRP      H  122  -0.410  -0.743  -0.447
    9TRP     CA  123  -0.372  -0.541  -0.388
    9TRP     HA  124  -0.329  -0.478  -0.452
    9TRP     CB  125  -0.524  -0.523  -0.387
    9TRP    HB1  126  -0.556  -0.524  -0.293
    9TRP    HB2  127  -0.566  -0.598  -0.438
    9TRP     CG  128  -0.568  -0.394  -0.450
    9TRP    CD1  129  -0.652  -0.379  -0.556
    9TRP    HD1  130  -0.696  -0.455  -0.606
    9TRP    NE1  131  -0.669  -0.246  -0.585
    9TRP    HE1  132  -0.726  -0.209  -0.659
    9TRP    CE2  133  -0.595  -0.172  -0.497
    9TRP    CZ2  134  -0.579  -0.034  -0.487
    9TRP    HZ2  135  -0.626   0.028  -0.549
    9TRP    CH2  136  -0.498   0.013  -0.388
    9TRP    HH2  137  -0.485   0.112  -0.378
    9TRP    CZ3  138  -0.431  -0.074  -0.300
    9TRP    HZ3  139  -0.372  -0.036  -0.229
    9TRP    CE3  140  -0.447  -0.211  -0.310
    9TRP    HE3  141  -0.399  -0.272  -0.247
    9TRP    CD2  142  -0.530  -0.262  -0.410
    9TRP      C  143  -0.316  -0.519  -0.248
    9TRP      O  144  -0.377  -0.559  -0.148
   10TYR      N  145  -0.201  -0.453  -0.240
   10TYR      H  146  -0.157  -0.423  -0.325
   10TYR     CA  147  -0.137  -0.425  -0.112
   10TYR     HA  148  -0.190  -0.476  -0.044
   10TYR     CB  149   0.008  -0.473  -0.114
   10TYR    HB1  150   0.062  -0.414  -0.053
   10TYR    HB2  151   0.043  -0.466  -0.207
   10TYR     CG  152   0.026  -0.616  -0.068
   10TYR    CD1  153   0.028  -0.647   0.068
   10TYR    HD1  154   0.018  -0.574   0.135
   10TYR    CE1  155   0.044  -0.778   0.110
   10TYR    HE1  156   0.046  -0.799   0.208
   10TYR     CZ  157   0.058  -0.879   0.017
   10TYR     OH  158   0.073  -1.009   0.059
   10TYR     HH  159   0.082  -1.069  -0.020
   10TYR    CE2  160   0.055  -0.850  -0.118
   10TYR    HE2  161   0.065  -0.923  -0.185
   10TYR    CD2  162   0.040  -0.719  -0.159
   10TYR    HD2  163   0.038  -0.699  -0.257
   10TYR      C  164  -0.142  -0.276  -0.080
   10TYR    OC1  165  -0.133  -0.246  -0.204
   10TYR    OC2  166  -0.152  -0.237   0.036
   1.61114   1.41545   1.32133
