Gyas ROwers Mature At Cryogenic Speed
  166
    1TYR      N    1   2.582   2.167   1.024
    1TYR     H1    2   2.614   2.139   0.933
    1TYR     H2    3   2.533   2.254   1.017
    1TYR     H3    4   2.661   2.178   1.084
    1TYR     CA    5   2.493   2.065   1.077
    1TYR     HA    6   2.547   1.981   1.082
    1TYR     CB    7   2.443   2.103   1.217
    1TYR    HB1    8   2.401   2.022   1.259
    1TYR    HB2    9   2.374   2.175   1.208
    1TYR     CG   10   2.553   2.153   1.307
    1TYR    CD1   11   2.583   2.287   1.327
    1TYR    HD1   12   2.530   2.358   1.280
    1TYR    CE1   13   2.687   2.324   1.413
    1TYR    HE1   14   2.709   2.420   1.430
    1TYR     CZ   15   2.758   2.223   1.475
    1TYR     OH   16   2.865   2.262   1.558
    1TYR     HH   17   2.908   2.181   1.597
    1TYR    CE2   18   2.733   2.087   1.458
    1TYR    HE2   19   2.787   2.017   1.504
    1TYR    CD2   20   2.629   2.056   1.374
    1TYR    HD2   21   2.607   1.960   1.359
    1TYR      C   22   2.373   2.056   0.985
    1TYR      O   23   2.339   2.160   0.929
    2TYR      N   24   2.307   1.943   0.970
    2TYR      H   25   2.345   1.859   1.008
    2TYR     CA   26   2.180   1.938   0.902
    2TYR     HA   27   2.182   2.016   0.838
    2TYR     CB   28   2.165   1.811   0.821
    2TYR    HB1   29   2.071   1.808   0.787
    2TYR    HB2   30   2.181   1.734   0.882
    2TYR     CG   31   2.255   1.796   0.703
    2TYR    CD1   32   2.370   1.719   0.710
    2TYR    HD1   33   2.394   1.673   0.795
    2TYR    CE1   34   2.452   1.704   0.599
    2TYR    HE1   35   2.534   1.648   0.607
    2TYR     CZ   36   2.423   1.765   0.478
    2TYR     OH   37   2.498   1.748   0.366
    2TYR     HH   38   2.458   1.801   0.291
    2TYR    CE2   39   2.308   1.838   0.471
    2TYR    HE2   40   2.282   1.879   0.384
    2TYR    CD2   41   2.227   1.856   0.582
    2TYR    HD2   42   2.146   1.913   0.574
    2TYR      C   43   2.067   1.952   1.002
    2TYR      O   44   2.067   1.896   1.109
    3ASP      N   45   1.967   2.031   0.963
    3ASP      H   46   1.973   2.076   0.874
    3ASP     CA   47   1.848   2.054   1.043
    3ASP     HA   48   1.879   2.068   1.137
    3ASP     CB   49   1.778   2.178   0.990
    3ASP    HB1   50   1.746   2.160   0.898
    3ASP    HB2   51   1.843   2.254   0.989
    3ASP     CG   52   1.661   2.219   1.072
    3ASP    OD1   53   1.553   2.161   1.065
    3ASP    OD2   54   1.685   2.320   1.151
    3ASP      C   55   1.753   1.933   1.040
    3ASP      O   56   1.729   1.880   0.931
    4PRO      N   57   1.703   1.889   1.153
    4PRO     CD   58   1.724   1.941   1.289
    4PRO    HD1   59   1.706   2.039   1.293
    4PRO    HD2   60   1.818   1.922   1.320
    4PRO     CG   61   1.625   1.864   1.369
    4PRO    HG1   62   1.537   1.911   1.369
    4PRO    HG2   63   1.657   1.853   1.463
    4PRO     CB   64   1.610   1.732   1.305
    4PRO    HB1   65   1.521   1.692   1.327
    4PRO    HB2   66   1.683   1.670   1.335
    4PRO     CA   67   1.622   1.766   1.154
    4PRO     HA   68   1.668   1.698   1.096
    4PRO      C   69   1.485   1.779   1.091
    4PRO      O   70   1.426   1.676   1.058
    5GLU      N   71   1.433   1.901   1.080
    5GLU      H   72   1.486   1.978   1.115
    5GLU     CA   73   1.304   1.929   1.021
    5GLU     HA   74   1.257   1.841   1.031
    5GLU     CB   75   1.229   2.042   1.096
    5GLU    HB1   76   1.156   2.078   1.037
    5GLU    HB2   77   1.293   2.115   1.119
    5GLU     CG   78   1.164   1.998   1.224
    5GLU    HG1   79   1.131   2.081   1.270
    5GLU    HG2   80   1.236   1.956   1.280
    5GLU     CD   81   1.049   1.901   1.217
    5GLU    OE1   82   1.028   1.822   1.313
    5GLU    OE2   83   0.975   1.907   1.117
    5GLU      C   84   1.313   1.959   0.874
    5GLU      O   85   1.226   1.915   0.795
    6THR      N   86   1.414   2.035   0.831
    6THR      H   87   1.486   2.061   0.895
    6THR     CA   88   1.420   2.081   0.694
    6THR     HA   89   1.328   2.060   0.662
    6THR     CB   90   1.451   2.229   0.682
    6THR     HB   91   1.451   2.254   0.586
    6THR    CG2   92   1.354   2.315   0.763
    6THR   HG21   93   1.378   2.412   0.752
    6THR   HG22   94   1.261   2.300   0.729
    6THR   HG23   95   1.359   2.290   0.859
    6THR    OG1   96   1.580   2.253   0.737
    6THR    HG1   97   1.602   2.351   0.730
    6THR      C   98   1.526   2.007   0.613
    6THR      O   99   1.524   2.013   0.490
    7GLY      N  100   1.622   1.939   0.675
    7GLY      H  101   1.622   1.936   0.775
    7GLY     CA  102   1.726   1.868   0.604
    7GLY    HA1  103   1.681   1.810   0.535
    7GLY    HA2  104   1.773   1.810   0.670
    7GLY      C  105   1.826   1.956   0.536
    7GLY      O  106   1.901   1.909   0.451
    8THR      N  107   1.836   2.080   0.570
    8THR      H  108   1.776   2.113   0.643
    8THR     CA  109   1.924   2.176   0.512
    8THR     HA  110   1.953   2.131   0.428
    8THR     CB  111   1.855   2.307   0.476
    8THR     HB  112   1.924   2.374   0.446
    8THR    CG2  113   1.750   2.287   0.369
    8THR   HG21  114   1.707   2.375   0.347
    8THR   HG22  115   1.793   2.250   0.286
    8THR   HG23  116   1.680   2.223   0.402
    8THR    OG1  117   1.791   2.360   0.592
    8THR    HG1  118   1.745   2.446   0.569
    8THR      C  119   2.042   2.203   0.607
    8THR      O  120   2.032   2.187   0.731
    9TRP      N  121   2.152   2.242   0.552
    9TRP      H  122   2.152   2.255   0.453
    9TRP     CA  123   2.276   2.268   0.624
    9TRP     HA  124   2.287   2.197   0.694
    9TRP     CB  125   2.392   2.260   0.531
    9TRP    HB1  126   2.383   2.334   0.463
    9TRP    HB2  127   2.389   2.172   0.484
    9TRP     CG  128   2.527   2.274   0.597
    9TRP    CD1  129   2.602   2.385   0.606
    9TRP    HD1  130   2.578   2.474   0.568
    9TRP    NE1  131   2.718   2.357   0.675
    9TRP    HE1  132   2.790   2.423   0.696
    9TRP    CE2  133   2.718   2.224   0.710
    9TRP    CZ2  134   2.812   2.149   0.778
    9TRP    HZ2  135   2.898   2.191   0.809
    9TRP    CH2  136   2.786   2.018   0.803
    9TRP    HH2  137   2.853   1.962   0.853
    9TRP    CZ3  138   2.668   1.959   0.757
    9TRP    HZ3  139   2.650   1.862   0.774
    9TRP    CE3  140   2.575   2.035   0.689
    9TRP    HE3  141   2.490   1.992   0.658
    9TRP    CD2  142   2.598   2.170   0.664
    9TRP      C  143   2.269   2.406   0.687
    9TRP      O  144   2.232   2.503   0.618
   10TYR      N  145   2.305   2.419   0.814
   10TYR      H  146   2.328   2.337   0.866
   10TYR     CA  147   2.313   2.547   0.879
   10TYR     HA  148   2.321   2.611   0.803
   10TYR     CB  149   2.186   2.575   0.964
   10TYR    HB1  150   2.105   2.561   0.907
   10TYR    HB2  151   2.188   2.670   0.997
   10TYR     CG  152   2.175   2.486   1.082
   10TYR    CD1  153   2.220   2.521   1.210
   10TYR    HD1  154   2.261   2.611   1.223
   10TYR    CE1  155   2.210   2.438   1.318
   10TYR    HE1  156   2.243   2.470   1.408
   10TYR     CZ  157   2.156   2.312   1.305
   10TYR     OH  158   2.150   2.231   1.413
   10TYR     HH  159   2.108   2.144   1.387
   10TYR    CE2  160   2.112   2.275   1.180
   10TYR    HE2  161   2.072   2.184   1.169
   10TYR    CD2  162   2.120   2.359   1.072
   10TYR    HD2  163   2.086   2.327   0.983
   10TYR      C  164   2.439   2.559   0.965
   10TYR    OC1  165   2.508   2.459   0.988
   10TYR    OC2  166   2.458   2.675   1.007
   1.93291   1.02712   1.31081
