GROningen MAchine for Chemical Simulation
   42
    1ACE    CH3    1   0.000   0.002   0.017
    1ACE   HH31    2  -0.030  -0.092   0.038
    1ACE   HH32    3  -0.022   0.061   0.094
    1ACE   HH33    4  -0.047   0.034  -0.065
    1ACE      C    5   0.149   0.002  -0.007
    1ACE      O    6   0.206   0.107  -0.034
    2ALA      N    7   0.212  -0.115  -0.001
    2ALA      H    8   0.156  -0.198   0.002
    2ALA     CA    9   0.358  -0.130  -0.000
    2ALA     HA   10   0.389  -0.076   0.078
    2ALA     CB   11   0.391  -0.278   0.017
    2ALA    HB1   12   0.491  -0.290   0.018
    2ALA    HB2   13   0.353  -0.311   0.104
    2ALA    HB3   14   0.353  -0.330  -0.059
    2ALA      C   15   0.426  -0.069  -0.124
    2ALA      O   16   0.527  -0.001  -0.111
    3ALA      N   17   0.371  -0.094  -0.244
    3ALA      H   18   0.293  -0.156  -0.248
    3ALA     CA   19   0.418  -0.035  -0.370
    3ALA     HA   20   0.515  -0.060  -0.376
    3ALA     CB   21   0.338  -0.097  -0.485
    3ALA    HB1   22   0.369  -0.058  -0.572
    3ALA    HB2   23   0.352  -0.196  -0.486
    3ALA    HB3   24   0.241  -0.077  -0.473
    3ALA      C   25   0.412   0.119  -0.372
    3ALA      O   26   0.504   0.183  -0.423
    4ALA      N   27   0.302   0.178  -0.324
    4ALA      H   28   0.225   0.120  -0.299
    4ALA     CA   29   0.287   0.323  -0.308
    4ALA     HA   30   0.307   0.362  -0.398
    4ALA     CB   31   0.143   0.355  -0.267
    4ALA    HB1   32   0.132   0.454  -0.256
    4ALA    HB2   33   0.080   0.323  -0.339
    4ALA    HB3   34   0.122   0.309  -0.181
    4ALA      C   35   0.391   0.384  -0.211
    4ALA      O   36   0.444   0.492  -0.237
    5NME      N   37   0.413   0.319  -0.096
    5NME      H   38   0.359   0.237  -0.078
    5NME    CH3   39   0.511   0.360   0.004
    5NME   HH31   40   0.509   0.295   0.081
    5NME   HH32   41   0.602   0.360  -0.036
    5NME   HH33   42   0.488   0.451   0.038
   0.64894   0.82187   0.67534
