GROningen MAchine for Chemical Simulation
   42
    1ACE    CH3    1  -0.004  -0.003   0.004
    1ACE   HH31    2  -0.033  -0.099   0.011
    1ACE   HH32    3  -0.038   0.047   0.084
    1ACE   HH33    4  -0.043   0.038  -0.079
    1ACE      C    5   0.146   0.005  -0.001
    1ACE      O    6   0.202   0.114  -0.008
    2ALA      N    7   0.212  -0.111   0.004
    2ALA      H    8   0.158  -0.195   0.010
    2ALA     CA    9   0.358  -0.124  -0.001
    2ALA     HA   10   0.393  -0.038  -0.036
    2ALA     CB   11   0.411  -0.149   0.141
    2ALA    HB1   12   0.510  -0.158   0.138
    2ALA    HB2   13   0.386  -0.071   0.199
    2ALA    HB3   14   0.371  -0.232   0.178
    2ALA      C   15   0.400  -0.236  -0.098
    2ALA      O   16   0.341  -0.344  -0.097
    3ALA      N   17   0.501  -0.210  -0.181
    3ALA      H   18   0.542  -0.119  -0.177
    3ALA     CA   19   0.556  -0.304  -0.279
    3ALA     HA   20   0.525  -0.395  -0.252
    3ALA     CB   21   0.502  -0.270  -0.418
    3ALA    HB1   22   0.539  -0.334  -0.485
    3ALA    HB2   23   0.402  -0.277  -0.418
    3ALA    HB3   24   0.529  -0.177  -0.443
    3ALA      C   25   0.710  -0.302  -0.275
    3ALA      O   26   0.770  -0.195  -0.269
    4ALA      N   27   0.773  -0.420  -0.277
    4ALA      H   28   0.716  -0.503  -0.280
    4ALA     CA   29   0.918  -0.437  -0.275
    4ALA     HA   30   0.958  -0.349  -0.301
    4ALA     CB   31   0.963  -0.475  -0.134
    4ALA    HB1   32   1.062  -0.487  -0.132
    4ALA    HB2   33   0.937  -0.402  -0.070
    4ALA    HB3   34   0.919  -0.560  -0.106
    4ALA      C   35   0.962  -0.542  -0.379
    4ALA      O   36   0.899  -0.647  -0.391
    5NME      N   37   1.068  -0.512  -0.455
    5NME      H   38   1.113  -0.424  -0.440
    5NME    CH3   39   1.122  -0.601  -0.558
    5NME   HH31   40   1.201  -0.557  -0.602
    5NME   HH32   41   1.150  -0.687  -0.517
    5NME   HH33   42   1.051  -0.618  -0.627
   1.24331   0.80092   0.82652
