; Paper mainline: unrestrained production MD (vacuum)
; nsteps is rewritten by run_md.py --length {100,200,500}  (default 100 ns)
; Vacuum systems are tiny, so 1 ps/frame is cheap and better for later TAPS windows.
integrator               = md
dt                       = 0.002
nsteps                   = 50000000      ; 100 ns
nstlog                   = 50000         ; 100 ps
nstenergy                = 50000
nstxout                  = 0
nstvout                  = 0
nstfout                  = 0
nstxout-compressed       = 500           ; 1 ps / frame
compressed-x-precision   = 1000
compressed-x-grps        = System

cutoff-scheme            = Verlet
nstlist                  = 20
coulombtype              = PME
rcoulomb                 = 1.0
vdwtype                  = Cut-off
rvdw                     = 1.0
DispCorr                 = no
pbc                      = xyz

tcoupl                   = v-rescale
tc-grps                  = System
tau-t                    = 0.1
ref-t                    = 300

pcoupl                   = no

constraints              = h-bonds
constraint-algorithm     = lincs
lincs-iter               = 1
lincs-order              = 4

gen-vel                  = no
continuation             = yes

nstcomm                  = 100
comm-mode                = Linear
comm-grps                = System
