; Adaptive-sampling production in vacuum: 500 ps
integrator               = md
dt                       = 0.002
nsteps                   = 250000
nstlog                   = 2500
nstenergy                = 2500
nstxout-compressed       = 250
compressed-x-precision   = 1000
compressed-x-grps        = System
cutoff-scheme            = Verlet
nstlist                  = 20
coulombtype              = PME
rcoulomb                 = 1.0
vdwtype                  = Cut-off
rvdw                     = 1.0
DispCorr                 = no
pbc                      = xyz
tcoupl                   = v-rescale
tc-grps                  = System
tau-t                    = 0.1
ref-t                    = 300
pcoupl                   = no
constraints              = h-bonds
constraint-algorithm     = lincs
gen-vel                  = yes
gen-temp                 = 300
gen-seed                 = -1
continuation             = no
nstcomm                  = 100
comm-mode                = Linear
comm-grps                = System
