; Adaptive-sampling production: 100 ps unbiased short MD
; Restart from a selected seed frame with new velocities (gen-vel = yes)
integrator               = md
dt                       = 0.002
nsteps                   = 50000          ; 100 ps
nstlog                   = 500
nstenergy                = 500
nstxout                  = 0
nstvout                  = 0
nstfout                  = 0
nstxout-compressed       = 50            ; 0.1 ps / frame  -> 1000 frames
compressed-x-precision   = 1000
compressed-x-grps        = System

cutoff-scheme            = Verlet
nstlist                  = 20
coulombtype              = PME
rcoulomb                 = 1.0
vdwtype                  = Cut-off
rvdw                     = 1.0
DispCorr                 = EnerPres
pbc                      = xyz

tcoupl                   = v-rescale
tc-grps                  = Protein Non-Protein
tau-t                    = 0.1     0.1
ref-t                    = 300     300

pcoupl                   = C-rescale
pcoupltype               = isotropic
tau-p                    = 5.0
ref-p                    = 1.0
compressibility          = 4.5e-5

constraints              = h-bonds
constraint-algorithm     = lincs
lincs-iter               = 1
lincs-order              = 4

gen-vel                  = yes
gen-temp                 = 300
gen-seed                 = -1
continuation             = no

nstcomm                  = 100
comm-mode                = Linear
comm-grps                = Protein Non-Protein
