GROtesk MACabre and Sinister
   22
    1ACE    CH3    1  -0.001  -0.006   0.002
    1ACE   HH31    2  -0.030  -0.101   0.009
    1ACE   HH32    3  -0.035   0.045   0.081
    1ACE   HH33    4  -0.037   0.034  -0.082
    1ACE      C    5   0.150   0.000  -0.001
    1ACE      O    6   0.207   0.108  -0.009
    2ALA      N    7   0.215  -0.116   0.004
    2ALA      H    8   0.161  -0.200   0.008
    2ALA     CA    9   0.361  -0.127   0.004
    2ALA     HA   10   0.397  -0.050   0.057
    2ALA     CB   11   0.399  -0.259   0.073
    2ALA    HB1   12   0.499  -0.268   0.074
    2ALA    HB2   13   0.365  -0.258   0.167
    2ALA    HB3   14   0.359  -0.335   0.024
    2ALA      C   15   0.419  -0.113  -0.139
    2ALA      O   16   0.468  -0.209  -0.198
    3NME      N   17   0.412   0.009  -0.194
    3NME      H   18   0.370   0.082  -0.140
    3NME    CH3   19   0.461   0.042  -0.328
    3NME   HH31   20   0.444   0.139  -0.346
    3NME   HH32   21   0.559   0.024  -0.333
    3NME   HH33   22   0.413  -0.014  -0.396
   0.59648   0.47433   0.56295
