; Kept for compatibility. Paper mainline uses md_prod.mdp (100/200/500 ns).
; This file is a 100 ns unbiased production template (explicit solvent).
integrator               = md
dt                       = 0.002
nsteps                   = 50000000      ; 100 ns
nstlog                   = 50000
nstenergy                = 50000
nstxout                  = 0
nstvout                  = 0
nstfout                  = 0
nstxout-compressed       = 5000          ; 10 ps / frame
compressed-x-precision   = 1000
compressed-x-grps        = System

cutoff-scheme            = Verlet
nstlist                  = 20
coulombtype              = PME
rcoulomb                 = 1.0
vdwtype                  = Cut-off
rvdw                     = 1.0
DispCorr                 = EnerPres
pbc                      = xyz

tcoupl                   = v-rescale
tc-grps                  = Protein Non-Protein
tau-t                    = 0.1     0.1
ref-t                    = 300     300

pcoupl                   = C-rescale
pcoupltype               = isotropic
tau-p                    = 5.0
ref-p                    = 1.0
compressibility          = 4.5e-5

constraints              = h-bonds
constraint-algorithm     = lincs
lincs-iter               = 1
lincs-order              = 4

gen-vel                  = no
continuation             = yes

nstcomm                  = 100
comm-mode                = Linear
comm-grps                = Protein Non-Protein
